! Touchstone file exported from HFSS 2021.2.0
!        File:           D:/Desktop/HFSS_real/12GHzdiplexer2/derived/refine27/r27_c1y022/r27_c1y022.aedt
!        Generated:      11:43:55 %x4E0A%x5348  4%x6708 28, 2026
!        Design:         HFSSDesign1
!        Project:        r27_c1y022
!        Setup:          Setup1
!        Solution:       Sweep
!
! Variables:
!        L2_g112g = 7.2e-05
!        L2_g212g = 0.075mm
!        L2_g312g = 0.75mm
!        L2_g412g = 0.3mm
!        L4_g112g = 9.6e-05
!        L4_g212g = 0.08mm
!        L4_g312g = 0.85mm
!        L4_g412g = 0.3mm
!        compensation_y = 0.0249999999999998mm
!        compensation_y_2 = 0.0200000000000001mm
!        copper = 0.035mm
!        cover_HPF_out12g = 0.1mm
!        d_L212g = 1.41mm
!        d_L412g = 0.62mm
!        delta_cover_HPF12g = 0.05mm
!        delta_x_HP12g = 0.05mm
!        gap_down_box12g = 0.2mm
!        gap_up_box12g = 0mm
!        h_down_box12g = 0.25mm
!        h_sub12G = 0.254mm
!        h_up_box12g = 0.25mm
!        index1 = 0.6m
!        l_C212g = 0.4554mm
!        l_C412g = 0.5544mm
!        l_L112g = 0.4644mm
!        l_L312g = 0.8208mm
!        l_L512g = 0.693mm
!        l_line112g = 2mm
!        l_line212g = 1mm
!        l_line312g = 0.04mm
!        l_line412g = 1mm
!        l_sub12g = 2.576mm
!        l_sub_LPF12g = 4.008mm
!        w_C1 = 0.37mm
!        w_C1_y = 0.22mm
!        w_C212g = 1.45mm
!        w_C412g = 1.45mm
!        w_L112g = 0.09mm
!        w_L212g = 0.0064mm
!        w_L312g = 0.03mm
!        w_L412g = 0.0112mm
!        w_L512g = 0.08mm
!        w_line12g = 0.395mm
!        w_sub12G = 1.7mm
!
# GHz S MA R 50.000000
! Terminal data exported
! Port[1] = 1
! Port[2] = 2
! Port[3] = 3
0                              0.00339892559611599 180              5.11602322000316E-11 180              0.999721188919466 0                
                               5.11602306516008E-11 180              1.00000093618826 0                5.26086826271291E-11 180              
                               0.999721188933904 0                5.26086839557815E-11 180              0.00395059924596808 0                
0.08                           0.0100795894376869 -129.96732005283 4.56985568823897E-07 88.4162902094948 0.999457338727316 -1.59384014759247 
                               4.56985568823897E-07 88.4162902094948 0.999958463609376 -0.509615665879666 4.5981297472297E-07 88.5136605566543 
                               0.999457338727314 -1.59384014759244 4.5981297472297E-07 88.5136605566545 0.0100412241345153 -47.6818448487433 
0.16                           0.0167835076863338 -115.282839230939 9.11210024198398E-07 87.2058138226985 0.999134472086609 -3.17894458103474 
                               9.11210024198398E-07 87.2058138226985 0.999920130377952 -1.01904478241111 9.1682234023187E-07 87.4097522235462 
                               0.999134472086609 -3.17894458103477 9.16822340231869E-07 87.4097522235462 0.0166657847424497 -67.4243857057754 
0.24                           0.0240945531405107 -109.990055120659 1.35649820037991E-06 85.8888987424738 0.99876978357243 -4.7573275232344 
                               1.35649820037991E-06 85.8888987424737 0.999884152672676 -1.52706373938707 1.3647348182793E-06 86.213267769813  
                               0.998769783572429 -4.75732752323445 1.3647348182793E-06 86.213267769813  0.0239679656094412 -76.6922921232254 
0.32                           0.0316153255317415 -107.917663046804 1.78776165488583E-06 84.5448951100656 0.998388912419846 -6.33242034934193 
                               1.78776165488583E-06 84.5448951100655 0.999859110943066 -2.03464054622572 1.79829720640128E-06 85.0077986028451 
                               0.998388912419845 -6.33242034934194 1.79829720640128E-06 85.0077986028452 0.0314844208130549 -82.3541771300597 
0.4                            0.0392277703651941 -107.276829917182 2.20105615789783E-06 83.1928742820236 0.997975957546914 -7.90622244454914 
                               2.20105615789783E-06 83.1928742820235 0.999838770645107 -2.54228487600872 2.21340107487488E-06 83.8214486613095 
                               0.997975957546912 -7.90622244454911 2.21340107487488E-06 83.8214486613095 0.0390926629414219 -86.4323219734379 
0.48                           0.0468812434871574 -107.386238529138 2.59284920202793E-06 81.8340522032776 0.997516243698403 -9.47920475687835 
                               2.59284920202793E-06 81.8340522032775 0.999818827509519 -3.0500549840887 2.60635509200334E-06 82.6654649282824 
                               0.997516243698402 -9.47920475687831 2.60635509200334E-06 82.6654649282824 0.0467427164512754 -89.6859294949556 
0.56                           0.0545489557115911 -107.933764047428 2.96001436876234E-06 80.4622199312091 0.99700235286436 -11.0513329239454 
                               2.96001436876234E-06 80.462219931209  0.999797614222596 -3.55790569266182 2.97393931962229E-06 81.5450056886309 
                               0.997002352864358 -11.0513329239454 2.97393931962229E-06 81.5450056886309 0.0544085953572377 -92.4568712349344 
0.64                           0.062214760580659 -108.757201195407 3.29963853480157E-06 79.0658372095046 0.996431889162106 -12.6224651531511 
                               3.29963853480157E-06 79.0658372095046 0.99977494843656 -4.06579221366393 3.31328266152724E-06 80.4609058230358 
                               0.996431889162105 -12.622465153151 3.31328266152725E-06 80.4609058230358 0.062074532012364 -94.9204462761669 
0.72                           0.0698679860317666 -109.764334561163 3.60866600289868E-06 77.6300607908825 0.995805227201365 -14.192478960779 
                               3.60866600289867E-06 77.6300607908826 0.999751327660992 -4.57369295609943 3.62153483604956E-06 79.4107736719139 
                               0.995805227201365 -14.192478960779 3.62153483604957E-06 79.4107736719138 0.0697297635650581 -97.175632119148 
0.8                            0.0775010173426544 -110.899088675019 3.88341577990404E-06 76.1407201443481 0.995124104187007 -15.7613047609459 
                               3.88341577990404E-06 76.1407201443483 0.999727499442841 -5.08160953717126 3.89521650212399E-06 78.3919529063465 
                               0.995124104187006 -15.761304760946 3.895216502124E-06 78.3919529063463 0.077366131626812 -99.2825804703636 
0.88                           0.0851080431275721 -112.125514960114 4.11909264692603E-06 74.5919851737808 0.99439080141651 -17.3289295749053 
                               4.11909264692603E-06 74.591985173781  0.999704249362379 -5.5895616963706 4.12903514037446E-06 77.4118570848507 
                               0.994390801416509 -17.3289295749054 4.12903514037446E-06 77.4118570848505 0.0849768482926564 -101.280006894769 
0.96                           0.0926843665216809 -113.419556142182 4.30961479317552E-06 72.999239433356  0.993607662275127 -18.8953916005151 
                               4.30961479317552E-06 72.9992394333561 0.999682301704461 -6.09758203908204 4.31419609830119E-06 76.523211614416  
                               0.993607662275127 -18.8953916005152 4.31419609830119E-06 76.5232116144159 0.0925558243970799 -103.193992488268 
1.04                           0.100235880917591 -114.760857833645 4.45994079689474E-06 71.7529312592874 0.992780037282112 -20.4621162957057 
                               4.4599407968842E-06 71.7529312600554 0.999663236363185 -6.60607187560893 4.44937903492452E-06 75.8354481192898 
                               0.992780037282112 -20.4621162957057 4.44937903492586E-06 75.8354481191951 0.100103695062103 -105.039561331472 
1.12                           0.107757694546238 -116.141077845248 4.57339514603545E-06 70.7784903678916 0.991900523303342 -22.0286830049449 
                               4.57339514604521E-06 70.7784903679641 0.999644313177175 -7.11493732916835 4.5398201858751E-06 75.25749279266   
                               0.991900523303342 -22.0286830049449 4.53982018587493E-06 75.2574927926425 0.10761757264372 -106.83195749281 
1.2                            0.115235930401063 -117.55581865205 4.63804407148585E-06 69.6964650187235 0.990964823226153 -23.5935224750207 
                               4.63804407150536E-06 69.6964650184319 0.999623907104627 -7.6237876048361 4.57590310735075E-06 74.8177886955092 
                               0.990964823226153 -23.5935224750208 4.5759031073501E-06 74.8177886955219 0.115088137819794 -108.584262200143 
1.28                           0.12266723551767 -118.998077402452 4.65104905643392E-06 68.4960569627933 0.989974982219634 -25.1565601676033 
                               4.65104905647874E-06 68.4960569614767 0.999602365036276 -8.13263433882277 4.55463202810746E-06 74.5605901898226 
                               0.989974982219635 -25.1565601676033 4.55463202810806E-06 74.5605901897371 0.122512120735232 -110.303321669808 
1.36                           0.130048455222061 -120.462531125582 4.60976591618343E-06 67.1578819202252 0.988933024449478 -26.7177280468894 
                               4.60976591620501E-06 67.1578819199481 0.999579974938185 -8.64149056048732 4.47340632211783E-06 74.5472026367763 
                               0.988933024449478 -26.7177280468894 4.47340632211682E-06 74.5472026368051 0.129886433061324 -111.994416046001 
1.44                           0.137376587456814 -121.94506152865 4.51178986049988E-06 65.6510712141093 0.987840956358889 -28.2769637810284 
                               4.51178986052001E-06 65.6510712138214 0.999556974950229 -9.15037011040279 4.33022141904454E-06 74.8657657278307 
                               0.987840956358888 -28.2769637810284 4.33022141904431E-06 74.865765727811  0.13720812616119 -113.661679682476 
1.52                           0.144648754421614 -123.442431513258 4.35502903278145E-06 63.9279777997651 0.986700769302902 -29.8342101236013 
                               4.35502903277179E-06 63.9279778005198 0.999533561010408 -9.65928723797747 4.12402208006592E-06 75.647927475954  
                               0.986700769302902 -29.8342101236014 4.1240220800655E-06 75.6479274759173 0.144474365564738 -115.308392539686 
1.6                            0.151862185051457 -124.952060204149 4.13783063354221E-06 61.9146453092537 0.985514441750429 -31.3894144210189 
                               4.13783063357858E-06 61.9146453085779 0.999509893253053 -10.1682563194098 3.8553580089391E-06 77.0985189630605 
                               0.98551444175043 -31.3894144210189 3.85535800893833E-06 77.0985189630746 0.15168241551096 -116.937186872662 
1.68                           0.159014204318666 -126.471863441388 3.85921120836176E-06 59.4931380587678 0.984283941222438 -32.9425282140451 
                               3.85921120836384E-06 59.4931380587472 0.999486101414077 -10.677291658866 3.52767598718366E-06 79.5504321885283 
                               0.984283941222439 -32.9425282140452 3.52767598718311E-06 79.550432188442  0.158829629746892 -118.550196776019 
1.76                           0.166102226839874 -128.000138693413 3.51930932169425E-06 56.46703247224   0.983011226068688 -34.4935069142458 
                               3.51930932167626E-06 56.4670324731359 0.999462289432924 -11.1864073490547 3.15003415587047E-06 83.5682387307956 
                               0.983011226068687 -34.4935069142459 3.15003415586949E-06 83.568238730678  0.165913446223232 -120.149168295023 
1.84                           0.173123753187956 -129.535480689851 3.12035626200804E-06 52.4893144299183 0.981698247128437 -36.0423095430224 
                               3.12035626199367E-06 52.4893144311646 0.999438539396925 -11.6956171753765 2.74313228945812E-06 90.1354097436949 
                               0.981698247128436 -36.0423095430225 2.74313228945716E-06 90.1354097436693 0.172931384204637 -121.735541772447 
1.92                           0.180076367880864 -131.076718669796 2.6689850918679E-06 46.8996065938881 0.980346949280563 -37.5888985244942 
                               2.66898509192305E-06 46.8996065932255 0.999414914937912 -12.2049345527135 2.35280278661545E-06 100.894142864437 
                               0.980346949280562 -37.5888985244942 2.3528027866145E-06 100.894142864468 0.179881042852054 -123.310514295974 
2                              0.186957738380202 -132.622869082111 2.18242713105607E-06 38.3309462293867 0.978959272864879 -39.1332395253131 
                               2.18242713101377E-06 38.3309462316752 0.999391464164509 -12.7143724869851 2.07472503520221E-06 117.814288964482 
                               0.978959272864878 -39.1332395253131 2.0747250352013E-06 117.814288964457 0.186760100670754 -124.875087653474 
2.08                           0.193765614662986 -134.173099493468 1.707124508135E-06 23.799891208116  0.977537154945791 -40.6753013354012 
                               1.70712450812321E-06 23.7998912092705 0.999368222194874 -13.2239435555806 2.06147194753601E-06 140.167227860527 
                               0.977537154945791 -40.6753013354013 2.06147194753426E-06 140.167227860528 0.193566315430485 -126.430105580934 
2.16                           0.200497829079528 -135.726700735024 1.37132936363378E-06 -1.9037240844918 0.976082530387886 -42.2150557840814 
                               1.37132936363005E-06 -1.90372408281469 0.999345213341864 -13.7336599021326 2.42167648710092E-06 161.441628471735 
                               0.976082530387885 -42.2150557840815 2.42167648710445E-06 161.441628471765 0.20029752430085 -127.976282995152 
2.24                           0.207152296308365 -137.283065180397 1.41795649123748E-06 -36.8312540855214 0.974597332717177 -43.7524776863889 
                               1.41795649120033E-06 -36.8312540851825 0.999322452993808 -14.2435332420634 3.11808700640551E-06 176.500469276865 
                               0.974597332717175 -43.7524776863889 3.11808700640667E-06 176.500469276891 0.206951644033965 -129.514229154281 
2.32                           0.213727013284333 -138.841669638987 1.92355135266624E-06 -63.7014176864166 0.973083494749075 -45.2875448146425 
                               1.92355135263436E-06 -63.7014176868416 0.999299949227824 -14.7535748760655 4.05984872687768E-06 -174.121437209535 
                               0.973083494749074 -45.2875448146425 4.05984872687653E-06 -174.121437209513 0.213526671085258 -131.044466167507 
2.4                            0.220220059019634 -140.402061760475 2.71885668340143E-06 -78.9798731382314 0.971542948972607 -46.8202378906742 
                               2.71885668341415E-06 -78.9798731370825 0.999277704188105 -15.2637957092491 5.18591549496676E-06 -168.406235905759 
                               0.971542948972605 -46.8202378906742 5.18591549496462E-06 -168.406235905727 0.220020681602559 -132.56744390624 
2.48                           0.226629594267458 -141.963849136925 3.68490290676784E-06 -87.9033182934497 0.969977627688886 -48.3505405944755 
                               3.68490290672269E-06 -87.9033182957248 0.999255715257987 -15.7742062741473 6.46542636881567E-06 -164.911892575718 
                               0.969977627688884 -48.3505405944755 6.46542636881487E-06 -164.911892575704 0.226431831240219 -134.08355210491 
2.56                           0.232953860998131 -143.526690496481 4.77482626715651E-06 -93.6618009441907 0.968389462909517 -49.8784395854254 
                               4.77482626714717E-06 -93.6618009449256 0.999233976051669 -16.2848167561487 7.88367880820373E-06 -162.796671084006 
                               0.968389462909516 -49.8784395854254 7.88367880820758E-06 -162.796671084013 0.232758354773229 -135.593130247696 
2.64                           0.239191181671784 -145.090288532783 5.97007161002215E-06 -97.719381962758 0.966780386027026 -51.403924532688 
                               5.97007161000369E-06 -97.7193819630432 0.9992124772488  -16.7956370202367 9.43383492927205E-06 -161.575646579811 
                               0.966780386027025 -51.403924532688 9.43383492927116E-06 -161.575646579802 0.238998565498776 -137.096475696853 
2.72                           0.245339958301324 -146.654384023891 7.26242824294323E-06 -100.778859104651 0.96515232727447 -52.9269881518063 
                               7.26242824294284E-06 -100.778859105841 0.999191207292844 -17.3066766381713 1.11129724791486E-05 -160.959941713065 
                               0.965152327274469 -52.9269881518064 1.11129724791466E-05 -160.959941713055 0.245150854421432 -138.593850413938 
2.8                            0.251398671306245 -148.218750975483 8.64784624974698E-06 -103.207554458938 0.963507214995056 -54.4476262449468 
                               8.64784624972236E-06 -103.207554459344 0.999170152971842 -17.8179449154619 1.29202111875617E-05 -160.769958880612 
                               0.963507214995055 -54.4476262449468 1.29202111875677E-05 -160.769958880623 0.25121368922413 -140.085486547126 
2.88                           0.257365878162499 -149.783192583454 1.01241138503501E-05 -105.212974941749 0.961846974744987 -55.9658377426584 
                               1.01241138503336E-05 -105.212974941459 0.999149299898209 -18.3294509176484 1.48557821055019E-05 -160.889338303526 
                               0.961846974744986 -55.9658377426584 1.4855782105505E-05 -160.889338303522 0.257185613031284 -141.571591098704 
2.96                           0.263240211856886 -151.347537856454 1.1689882898448E-05 -106.920145105675 0.960173528254041 -57.4816247453956 
                               1.16898828984315E-05 -106.920145105861 0.999128632902265 -18.8412034955515 1.69205392059122E-05 -161.239850115316 
                               0.96017352825404 -57.4816247453956 1.69205392059123E-05 -161.239850115314 0.26306524297323 -143.052349841819 
3.04                           0.269020379156532 -152.911638773326 1.33442192071955E-05 -108.408453509423 0.958488792268715 -58.9949925634008 
                               1.33442192071834E-05 -108.408453509451 0.99910813635241 -19.3532113092606 1.91156891769606E-05 -161.767167759545 
                               0.958488792268713 -58.9949925634008 1.91156891769622E-05 -161.767167759543 0.268851268563076 -144.527930620904 
3.12                           0.27470515870546 -154.47536787673 1.50863790107055E-05 -109.730521567823 0.9567946773024  -60.5059497538553 
                               1.50863790106978E-05 -109.730521567942 0.999087794413268 -19.8654828507175 2.14426346167937E-05 -162.432485542046 
                               0.956794677302398 -60.5059497538553 2.14426346167927E-05 -162.432485542042 0.274542449898231 -145.998486143415 
3.2                            0.280293398961047 -156.038616224543 1.69156917483787E-05 -110.922484859986 0.95509308631602 -62.0145081544846 
                               1.69156917483657E-05 -110.92248486002 0.999067591251617 -20.3780264648212 2.39028790862313E-05 -163.207395399496 
                               0.955093086316019 -62.0145081544846 2.39028790862301E-05 -163.207395399495 0.280137615699619 -147.464156349558 
3.28                           0.285784015983641 -157.601291636327 1.8831496730333E-05 -112.009898920733 0.953385913351221 -63.5206829130381 
                               1.88314967302848E-05 -112.00989892097 0.9990475111986  -20.8908503690318 2.64979673963519E-05 -164.070649805407 
                               0.95338591335122 -63.5206829130381 2.64979673963518E-05 -164.070649805406 0.285635661201885 -148.925070430242 
3.36                           0.291175991092666 -159.163317184475 2.08331089656298E-05 -113.011287809863 0.951675042136439 -65.0244925122709 
                               2.08331089656145E-05 -113.011287809969 0.999027538875514 -21.4039626714899 2.92294467468223E-05 -165.006054487423 
                               0.951675042136438 -65.0244925122709 2.92294467468237E-05 -165.006054487423 0.291035545907999 -150.381348550521 
3.44                           0.296468368402488 -160.724629889281 2.29198017522567E-05 -113.940360313618 0.94996234468436 -66.5259587902216 
                               2.29198017522453E-05 -113.940360313637 0.999007659289447 -21.9173713876948 3.20988406206065E-05 -166.001059533833 
                               0.949962344684359 -66.5259587902216 3.20988406206123E-05 -166.001059533839 0.296336291221471 -151.833103325393 
3.52                           0.301660252251052 -162.285179584821 2.50907994630922E-05 -114.80744112647 0.94824967989726 -68.025106955726 
                               2.50907994630547E-05 -114.807441126579 0.998987857904048 -22.4310844558079 3.51076307101376E-05 -167.045794668617 
                               0.948249679897258 -68.025106955726 3.51076307101399E-05 -167.045794668619 0.301536977969138 -153.280441086584 
3.6                            0.306750804533854 -163.844927928632 2.73452768898546E-05 -115.620422496789 0.946538892194753 -69.5219655992164 
                               2.73452768898162E-05 -115.620422496634 0.998968120689967 -22.9451097506567 3.82572440237479E-05 -168.132394363143 
                               0.946538892194752 -69.5219655992164 3.82572440237503E-05 -168.132394363145 0.306636743827049 -154.723462972263 
3.68                           0.311739241955411 -165.40384753298 2.96823630439815E-05 -116.385413533051 0.944831810176506 -71.0165666989531 
                               2.96823630439876E-05 -116.38541353323 0.998948434158742 -23.4594550965238 4.15490433992814E-05 -169.2545165162  
                               0.944831810176505 -71.0165666989531 4.1549043399285E-05 -169.254516516203 0.311634780661492 -156.162265866242 
3.76                           0.316624833209754 -166.961921199468 3.21011481564697E-05 -117.107193517312 0.943130245330553 -72.5089456229034 
                               3.21011481564437E-05 -117.107193517213 0.998928785383342 -23.9741282788123 4.4984320290935E-05 -170.406993151835 
                               0.943130245330552 -72.5089456229034 4.49843202909336E-05 -170.406993151835 0.31653033179665 -157.596943208822 
3.84                           0.321406896100967 -168.519141241841 3.4600693094556E-05 -117.78953498178 0.941435990796096 -73.9991411265403 
                               3.46006930945301E-05 -117.789534981802 0.998909162008014 -24.4891370546739 4.85642890850179E-05 -171.58557288803 
                               0.941435990796094 -73.9991411265403 4.85642890850126E-05 -171.585572888029 0.321322689219786 -159.027585697879 
3.92                           0.326084794614096 -170.075508884427 3.71800406933204E-05 -118.435438340844 0.939750820187944 -75.4871953468715 
                               3.71800406932995E-05 -118.435438340858 0.998889552249673 -25.0044891626905 5.22900824437432E-05 -172.78672831478 
                               0.939750820187942 -75.4871953468715 5.22900824437454E-05 -172.786728314784 0.326011190734235 -160.454281895836 
4                              0.330657935946154 -171.631033725741 3.98382286621799E-05 -119.04730525751 0.938076486488205 -76.9731537930396 
                               3.98382286621554E-05 -119.047305257474 0.998869944892661 -25.5201923316936 5.6162747331605E-05 -174.007510015267 
                               0.938076486488205 -76.9731537930396 5.61627473316087E-05 -174.007510015271 0.330595217069846 -161.877118755714 
4.08                           0.335125767506278 -173.185733258455 4.25743038275422E-05 -119.627068832853 0.93641472100942 -78.4570653338512 
                               4.2574303827564E-05 -119.627068832983 0.998850329278393 -26.0362542888023 6.01832414802371E-05 -175.245434593791 
                               0.936414721009419 -78.4570653338511 6.01832414802355E-05 -175.245434593793 0.335074188959862 -163.296182077501 
4.16                           0.339487773893455 -174.739632438382 4.53873375299765E-05 -120.176292880915 0.934767232431989 -79.9389821826015 
                               4.53873375299591E-05 -120.176292880968 0.998830695291133 -26.5526827667589 6.43524301149577E-05 -176.498397830231 
                               0.934767232431989 -79.9389821826014 6.43524301149562E-05 -176.498397830232 0.339447564192603 -164.711556904331 
4.24                           0.343743473859543 -176.292763296243 4.8276442027311E-05 -120.696248754435 0.933135705917629 -81.4189598795659 
                               4.82764420273256E-05 -120.696248754505 0.998811033340918 -27.0694855106316 6.86710828115283E-05 -177.764606629005 
                               0.933135705917628 -81.4189598795658 6.86710828115309E-05 -177.764606629007 0.34371483464565 -166.123327866659 
4.32                           0.347892417264739 -177.845164586949 5.12407877735307E-05 -121.187975667026 0.93152180229948 -82.8970572725256 
                               5.1240787773505E-05 -121.187975667076 0.998791334344448 -27.5866702839528 7.31398703826677E-05 -179.042525186754 
                               0.931521802299479 -82.8970572725256 7.31398703826675E-05 -179.042525186756 0.34787552330962 -167.531579481351 
4.4                            0.35193418203196 -179.396881471954 5.42796214466861E-05 -121.652328740142 0.929927157348604 -84.3733364956878 
                               5.42796214467327E-05 -121.652328740266 0.998771589704603 -28.1042448743532 7.77593617152613E-05 179.669167969369 
                               0.929927157348605 -84.3733364956877 7.77593617152654E-05 179.669167969365 0.351929181307994 -168.936396411711 
4.48                           0.355868371106019 179.052034769144 5.73922845992496E-05 -122.090017831585 0.928353381115735 -85.8478629473507 
                               5.73922845992495E-05 -122.090017831585 0.998751791289121 -28.6222170987503 8.25300204943998E-05 178.371614550874 
                               0.928353381115736 -85.8478629473506 8.25300204944014E-05 178.371614550871 0.355875384918862 -170.337863693575 
4.56                           0.359694609422887 177.501527001    6.05782327942189E-05 -122.501639373974 0.926802057346465 -87.3207052666516 
                               6.05782327942406E-05 -122.501639374093 0.998731931408851 -29.1405948081403 8.74522017605956E-05 177.065804538636 
                               0.926802057346464 -87.3207052666516 8.74522017605985E-05 177.065804538633 0.359713732603863 -171.736066931933 
4.64                           0.363412540893752 175.951532471692 6.38370550804853E-05 -122.887702872246 0.925274742967369 -88.7919353097185 
                               6.38370550805278E-05 -122.887702872289 0.998712002795907 -29.6593858920438 9.25261482542059E-05 175.752599076145 
                               0.925274742967369 -88.7919353097184 9.25261482542048E-05 175.752599076143 0.363443842049065 -173.131092471917 
4.72                           0.367021825408063 174.401983031074 6.71684936428538E-05 -123.248653283607 0.923772967640062 -90.2616281255317 
                               6.71684936428651E-05 -123.248653283636 0.998691998581986 -30.178598282645 9.77519865061173E-05 174.432749294019 
                               0.923772967640062 -90.2616281255317 9.77519865061177E-05 174.432749294016 0.367065347221939 -174.523027547503 
4.8                            0.370522135859201 172.852805330363 7.05724634447852E-05 -123.584890200913 0.922298233379665 -91.729861931785 
                               7.05724634447576E-05 -123.584890200926 0.998671912277031 -30.6982399586665 0.000103129722637399 173.106911888176 
                               0.922298233379665 -91.729861931785 0.000103129722637395 173.106911888174 0.370577895448143 -175.911960410826 
4.88                           0.373913155195941 171.303921004768 7.40490716614525E-05 -123.896784529338 0.920852014233774 -93.1967180910145 
                               7.40490716615051E-05 -123.896784529423 0.998651737748384 -31.2183189490122 0.000108659237833 171.775662089758 
                               0.920852014233773 -93.1967180910145 0.000108659237833002 171.775662089756 0.373981144511264 -177.297980444625 
4.96                           0.377194573502402 169.755246840696 7.75986366777537E-05 -124.184693178151 0.919435756017676 -94.6622810872482 
                               7.75986366777504E-05 -124.184693178177 0.998631469200536 -31.7388433362123 0.000114340283456199 170.439504525732 
                               0.919435756017675 -94.6622810872482 0.000114340283456196 170.43950452573  0.377274759778293 -178.681178260034 
5.04                           0.380366085108752 168.206694928901 8.12217064021925E-05 -124.448972158444 0.918050876101248 -96.1266385034095 
                               8.122170640225E-05 -124.448972158571 0.998611101155541 -32.2598212596986 0.000120172475771166 169.098882363241 
                               0.918050876101248 -96.1266385034095 0.000120172475771164 169.098882363239 0.380458411353091 179.938354218379 
5.12                           0.38342738573451 166.658172804765 8.49190756246374E-05 -124.6899883765  0.916698763242742 -97.5898809996892 
                               8.49190756246394E-05 -124.689988376523 0.99859062843413 -32.7812609189352 0.000126155290241672 167.75418504941  
                               0.916698763242742 -97.5898809996892 0.000126155290241668 167.754185049409 0.383531771259768 178.560523678622 
5.2                            0.386378169665909 165.109583576741 8.8691802119629E-05 -124.90813033323 0.915380777464437 -99.0521022930817 